# LAMMPS data file written by chemutils
10 atoms
3 atom types
0.0 32.7937 xlo xhi
0.0 32.7937 ylo yhi
0.0 32.7937 zlo zhi

Masses

1 12.0110
2 15.9990
3 14.0070

Atoms

1 1 5.7300 21.8000 6.0700
2 1 4.7000 22.0100 4.9500
3 2 3.6800 22.5900 5.1800
4 3 4.9500 21.4500 3.7600
5 1 3.9600 21.4900 2.6300
6 1 4.6000 20.9700 1.3400
7 1 2.7000 20.6300 2.9900
8 2 2.7700 19.5300 3.6600
9 3 1.5800 21.0300 2.4100
10 1 0.2800 20.3600 2.5600
