# LAMMPS data file written by chemutils
10 atoms
5 atom types
0.0 32.7937 xlo xhi
0.0 32.7937 ylo yhi
0.0 32.7937 zlo zhi

Masses

1 15.0410
2 12.0110
3 15.9990
4 15.0170
5 13.0210

Atoms

1 1 5.7817 21.7987 6.1170
2 2 4.7000 22.0100 4.9500
3 3 3.6800 22.5900 5.1800
4 4 4.9950 21.3982 3.7640
5 5 3.9352 21.5730 2.6230
6 1 4.6403 20.9445 1.2856
7 2 2.7000 20.6300 2.9900
8 3 2.7700 19.5300 3.6600
9 4 1.5867 21.0898 2.3710
10 1 0.2106 20.3191 2.5681
