# LAMMPS data file written by chemutils
22 atoms
4 atom types
0.0 32.7937 xlo xhi
0.0 32.7937 ylo yhi
0.0 32.7937 zlo zhi

Masses

1 1.0100
2 12.0110
3 15.9990
4 14.0070

Atoms

1 2 5.7300 21.8000 6.0700
2 1 6.6400 21.4400 5.6700
3 1 6.0100 22.8200 6.4000
4 1 5.3100 21.1200 6.8400
5 2 4.7000 22.0100 4.9500
6 3 3.6800 22.5900 5.1800
7 4 4.9500 21.4500 3.7600
8 1 5.6200 20.6800 3.8200
9 2 3.9600 21.4900 2.6300
10 1 3.6400 22.5600 2.5400
11 2 4.6000 20.9700 1.3400
12 1 5.4700 21.6300 1.2300
13 1 4.9900 19.9700 1.4900
14 1 3.9400 20.9300 0.4900
15 2 2.7000 20.6300 2.9900
16 3 2.7700 19.5300 3.6600
17 4 1.5800 21.0300 2.4100
18 1 1.6800 21.9200 1.8300
19 2 0.2800 20.3600 2.5600
20 1 0.2000 19.6700 1.7500
21 1 0.1300 19.7000 3.4300
22 1 0.0100 21.1000 2.6200
