# LAMMPS data file written by chemutils
6 atoms
6 atom types
0.0 32.7937 xlo xhi
0.0 32.7937 ylo yhi
0.0 32.7937 zlo zhi

Masses

1 12.0110
2 14.0070
3 12.0110
4 12.0110
5 12.0110
6 14.0070

Atoms

1 1 4.7000 22.0100 4.9500
2 2 4.9500 21.4500 3.7600
3 3 3.9600 21.4900 2.6300
4 4 4.6000 20.9700 1.3400
5 5 2.7000 20.6300 2.9900
6 6 1.5800 21.0300 2.4100
